File Format: MDS
Revision:  2.01
Title: netlist.log
Date: Fri May 20 14:52:29 2022
Plotname: TRAN Tran1[1] <netlist.log>   time=(1 ns->5 ns)
Flags: real 
No. Sweep Variables: 0
Sweep Variables:	
No. Variables: 6
Variables:	0	time	time type=real indep=yes
		1	Vout_PAM_2	voltage type=real indep=no
		2	Vout_PAM_1	voltage type=real indep=no
		3	Vin_PAM_2	voltage type=real indep=no
		4	Vin_PAM_1	voltage type=real indep=no
		5	tranorder	none type=real indep=no mixop=none
Values:
0	1.000000000000000e-09	-2.678543837420583e-01
	2.942983043270437e-01	-3.023354385178242e-01
	4.481966790909868e-01	2.000000000000000e+00

1	1.001000000000000e-09	-2.686324900429113e-01
	2.941403996146081e-01	-3.047093259667226e-01
	4.458308699104944e-01	2.000000000000000e+00

2	1.002000000000000e-09	-2.699005851175838e-01
	2.943697435376320e-01	-3.076063406499925e-01
	4.440479396509666e-01	2.000000000000000e+00

3	1.003000000000000e-09	-2.722584662144754e-01
	2.954199489912805e-01	-3.095710092126545e-01
	4.423221254169839e-01	2.000000000000000e+00

4	1.004000000000000e-09	-2.772878583729158e-01
	2.984011028059722e-01	-3.099178642162294e-01
	4.403773000955606e-01	2.000000000000000e+00

5	1.005000000000000e-09	-2.877382126611186e-01
	3.052921711597317e-01	-3.103813398942465e-01
	4.392382089868530e-01	2.000000000000000e+00

6	1.006000000000000e-09	-3.069055754726546e-01
	3.186409314980587e-01	-3.119314451152534e-01
	4.387767673082122e-01	2.000000000000000e+00

7	1.007000000000000e-09	-3.376763457093626e-01
	3.409800015859139e-01	-3.137792704439448e-01
	4.379008396899186e-01	2.000000000000000e+00

8	1.008000000000000e-09	-3.814431828445748e-01
	3.740578146771890e-01	-3.150726391042609e-01
	4.363283143590566e-01	2.000000000000000e+00

9	1.009000000000000e-09	-4.353878255646708e-01
	4.169313360330444e-01	-3.156710856278006e-01
	4.343276199887535e-01	2.000000000000000e+00

10	1.010000000000000e-09	-4.914794362602201e-01
	4.649620984721030e-01	-3.164439768304987e-01
	4.324697521140077e-01	2.000000000000000e+00

11	1.011000000000000e-09	-5.390539657105459e-01
	5.110709159062119e-01	-3.179312052079098e-01
	4.310124573186215e-01	2.000000000000000e+00

12	1.012000000000000e-09	-5.709205703434226e-01
	5.495205816846084e-01	-3.194518953563089e-01
	4.296853664855601e-01	2.000000000000000e+00

13	1.013000000000000e-09	-5.889955390585967e-01
	5.799382481753139e-01	-3.204241497672487e-01
	4.284683838890879e-01	2.000000000000000e+00

14	1.014000000000000e-09	-6.023579306140906e-01
	6.068992693203947e-01	-3.211631947936022e-01
	4.276531424043654e-01	2.000000000000000e+00

15	1.015000000000000e-09	-6.186166418814836e-01
	6.349410034191058e-01	-3.216725897548232e-01
	4.269142741915335e-01	2.000000000000000e+00

16	1.016000000000000e-09	-6.366102273832087e-01
	6.636370471011299e-01	-3.212767917059560e-01
	4.254556055932891e-01	2.000000000000000e+00

17	1.017000000000000e-09	-6.510664356640031e-01
	6.897903801680830e-01	-3.203766012293124e-01
	4.235745865256451e-01	2.000000000000000e+00

18	1.018000000000000e-09	-6.619292683703680e-01
	7.131183723010897e-01	-3.196617479519969e-01
	4.216867402922019e-01	2.000000000000000e+00

19	1.019000000000000e-09	-6.732094891805783e-01
	7.360026544462217e-01	-3.183493082491625e-01
	4.189178296388739e-01	2.000000000000000e+00

20	1.020000000000000e-09	-6.854829836303216e-01
	7.589926956873053e-01	-3.158229239305597e-01
	4.149058159800539e-01	2.000000000000000e+00

21	1.021000000000000e-09	-6.957570819772022e-01
	7.803880198325507e-01	-3.126219086563131e-01
	4.104807350363947e-01	2.000000000000000e+00

22	1.022000000000000e-09	-7.029752810301907e-01
	7.994731627023480e-01	-3.091032078164960e-01
	4.061152364885363e-01	2.000000000000000e+00

23	1.023000000000000e-09	-7.080003200199229e-01
	8.166856174339757e-01	-3.052477645300748e-01
	4.017268591078788e-01	2.000000000000000e+00

24	1.024000000000000e-09	-7.108196099266042e-01
	8.319692415585676e-01	-3.018326980401193e-01
	3.978545793578458e-01	2.000000000000000e+00

25	1.025000000000000e-09	-7.113869382383220e-01
	8.452174631572881e-01	-2.998605085901294e-01
	3.952403930420932e-01	2.000000000000000e+00

26	1.026000000000000e-09	-7.108597525789425e-01
	8.570573258338468e-01	-2.996222292405586e-01
	3.941478625350370e-01	2.000000000000000e+00

27	1.027000000000000e-09	-7.103457560649176e-01
	8.681451223698630e-01	-3.011506481519339e-01
	3.948259290956281e-01	2.000000000000000e+00

28	1.028000000000000e-09	-7.100579432766856e-01
	8.786208903575671e-01	-3.041009464919969e-01
	3.971573014674149e-01	2.000000000000000e+00

29	1.029000000000000e-09	-7.099542148170381e-01
	8.884600147203966e-01	-3.075221358706219e-01
	4.002333007760542e-01	2.000000000000000e+00

30	1.030000000000000e-09	-7.097310192611538e-01
	8.974757900609567e-01	-3.106451742804482e-01
	4.031143498126581e-01	2.000000000000000e+00

31	1.031000000000000e-09	-7.089251036285531e-01
	9.053863984061854e-01	-3.128748813788628e-01
	4.049912369218958e-01	2.000000000000000e+00

32	1.032000000000000e-09	-7.076258389243639e-01
	9.122688743202372e-01	-3.137413540726993e-01
	4.053683477185938e-01	2.000000000000000e+00

33	1.033000000000000e-09	-7.063545521438590e-01
	9.185158015207198e-01	-3.135606928396771e-01
	4.047395569736101e-01	2.000000000000000e+00

34	1.034000000000000e-09	-7.054566640062392e-01
	9.244468872629911e-01	-3.132514421251788e-01
	4.041794011283326e-01	2.000000000000000e+00

35	1.035000000000000e-09	-7.048980860305215e-01
	9.301292642853015e-01	-3.135140976413283e-01
	4.043518460522146e-01	2.000000000000000e+00

36	1.036000000000000e-09	-7.043468180693931e-01
	9.353893322419902e-01	-3.146355523528318e-01
	4.053839460973755e-01	2.000000000000000e+00

37	1.037000000000000e-09	-7.034910123708622e-01
	9.400143815040352e-01	-3.164061369452698e-01
	4.069839201824347e-01	2.000000000000000e+00

38	1.038000000000000e-09	-7.024654889008272e-01
	9.440657764808537e-01	-3.178777958764804e-01
	4.082991008702063e-01	2.000000000000000e+00

39	1.039000000000000e-09	-7.016979304422115e-01
	9.478410850286788e-01	-3.183344281008040e-01
	4.087519114924589e-01	2.000000000000000e+00

40	1.040000000000000e-09	-7.012990534269090e-01
	9.514947920495440e-01	-3.180648623555149e-01
	4.086201306977646e-01	2.000000000000000e+00

41	1.041000000000000e-09	-7.009773206079151e-01
	9.549213687948928e-01	-3.177245256211040e-01
	4.084198468294195e-01	2.000000000000000e+00

42	1.042000000000000e-09	-7.004740124489925e-01
	9.579780524421750e-01	-3.179353364219312e-01
	4.086846951465304e-01	2.000000000000000e+00

43	1.043000000000000e-09	-6.998531627375916e-01
	9.606840181866333e-01	-3.189929853424845e-01
	4.097398052805169e-01	2.000000000000000e+00

44	1.044000000000000e-09	-6.994241473020927e-01
	9.632282539100875e-01	-3.201921259011147e-01
	4.109106716181890e-01	2.000000000000000e+00

45	1.045000000000000e-09	-6.992784674031558e-01
	9.657110126371801e-01	-3.206876640554678e-01
	4.112672650778772e-01	2.000000000000000e+00

46	1.046000000000000e-09	-6.991252229348829e-01
	9.680060613725547e-01	-3.206585459017706e-01
	4.108302963352105e-01	2.000000000000000e+00

47	1.047000000000000e-09	-6.987964186821624e-01
	9.700259805674101e-01	-3.208916554542727e-01
	4.102908409366263e-01	2.000000000000000e+00

48	1.048000000000000e-09	-6.985088581188804e-01
	9.718952622748926e-01	-3.218702968440583e-01
	4.101213772300593e-01	2.000000000000000e+00

49	1.049000000000000e-09	-6.984278040086040e-01
	9.737225845254894e-01	-3.235210868437824e-01
	4.102073370077696e-01	2.000000000000000e+00

50	1.050000000000000e-09	-6.983856136119763e-01
	9.754320554188562e-01	-3.252461409082177e-01
	4.098591860812633e-01	2.000000000000000e+00

51	1.051000000000000e-09	-6.981225509281990e-01
	9.768819288991779e-01	-5.967558528417134e-01
	6.787804651277889e-01	2.000000000000000e+00

52	1.052000000000000e-09	-6.977733874889785e-01
	9.781524822893469e-01	-8.744914799758694e-01
	9.535341990964011e-01	2.000000000000000e+00

53	1.053000000000000e-09	-6.976973280943493e-01
	9.794695498967702e-01	-1.149370643391545e+00
	1.225183750679820e+00	2.000000000000000e+00

54	1.054000000000000e-09	-6.977995445800306e-01
	9.808012486870101e-01	-1.152718245654165e+00
	1.225197447451419e+00	2.000000000000000e+00

55	1.055000000000000e-09	-6.978291677655235e-01
	9.820162103562259e-01	-1.153622217843394e+00
	1.222876676665617e+00	2.000000000000000e+00

56	1.056000000000000e-09	-6.978310079726210e-01
	9.831498446959818e-01	-1.157115390658443e+00
	1.223503990262674e+00	2.000000000000000e+00

57	1.057000000000000e-09	-6.978984990584701e-01
	9.842639138686207e-01	-1.159414756407308e+00
	1.223472396479229e+00	2.000000000000000e+00

58	1.058000000000000e-09	-6.979382812137745e-01
	9.853090661489765e-01	-1.160244120471531e+00
	1.222590879324425e+00	2.000000000000000e+00

59	1.059000000000000e-09	-6.979168446483390e-01
	9.862743011125259e-01	-1.161958211943246e+00
	1.223219262745548e+00	2.000000000000000e+00

60	1.060000000000000e-09	-6.979350074995240e-01
	9.872325432445279e-01	-1.163187373850348e+00
	1.223868492611992e+00	2.000000000000000e+00

61	1.061000000000000e-09	-6.979371771904227e-01
	9.881603849601677e-01	-1.162916602720689e+00
	1.223286755548350e+00	2.000000000000000e+00

62	1.062000000000000e-09	-6.978762979311161e-01
	9.890363162205905e-01	-1.163673850316745e+00
	1.223740594114777e+00	2.000000000000000e+00

63	1.063000000000000e-09	-6.978316551430264e-01
	9.899188752890579e-01	-1.164918305257571e+00
	1.224480513096450e+00	2.000000000000000e+00

64	1.064000000000000e-09	-6.977783643955796e-01
	9.908030485529178e-01	-1.165655094586341e+00
	1.224406898777485e+00	2.000000000000000e+00

65	1.065000000000000e-09	-6.976577832230135e-01
	9.916539846117555e-01	-1.166911478890611e+00
	1.224604534547621e+00	2.000000000000000e+00

66	1.066000000000000e-09	-6.975315944009336e-01
	9.925034067939081e-01	-1.168628167713466e+00
	1.225225181396812e+00	2.000000000000000e+00

67	1.067000000000000e-09	-6.974295883775349e-01
	9.933573210960643e-01	-1.170437040740621e+00
	1.226153234246285e+00	2.000000000000000e+00

68	1.068000000000000e-09	-6.972993789483311e-01
	9.941553782039528e-01	-1.172825186393359e+00
	1.228037505002175e+00	2.000000000000000e+00

69	1.069000000000000e-09	-6.972060474848931e-01
	9.948912648604635e-01	-1.175604548738367e+00
	1.230670273017062e+00	2.000000000000000e+00

70	1.070000000000000e-09	-6.972189671826849e-01
	9.955502406855545e-01	-1.178754986099384e+00
	1.233824129036531e+00	2.000000000000000e+00

71	1.071000000000000e-09	-6.973126793282258e-01
	9.960470823075204e-01	-1.182865624474988e+00
	1.237813606825440e+00	2.000000000000000e+00

72	1.072000000000000e-09	-6.975605968102021e-01
	9.963506203079631e-01	-1.187841920280118e+00
	1.242387529126924e+00	2.000000000000000e+00

73	1.073000000000000e-09	-6.980116500772885e-01
	9.964260548583480e-01	-1.192393729308274e+00
	1.246328176585955e+00	2.000000000000000e+00

74	1.074000000000000e-09	-6.986083558223305e-01
	9.961945570207252e-01	-1.196564361645631e+00
	1.249922888808226e+00	2.000000000000000e+00

75	1.075000000000000e-09	-6.993697945490769e-01
	9.956578276128037e-01	-1.199885970296173e+00
	1.252924535163872e+00	2.000000000000000e+00

76	1.076000000000000e-09	-7.002612936202360e-01
	9.948324830177101e-01	-1.200788065340859e+00
	1.253775455943645e+00	2.000000000000000e+00

77	1.077000000000000e-09	-7.011468520978439e-01
	9.937135778895884e-01	-1.199929205909904e+00
	1.252932041814333e+00	2.000000000000000e+00

78	1.078000000000000e-09	-7.019718116602396e-01
	9.923688662189475e-01	-1.198103268453673e+00
	1.250959427442662e+00	2.000000000000000e+00

79	1.079000000000000e-09	-7.027404360819065e-01
	9.909075031190672e-01	-1.195189282356741e+00
	1.247687444604502e+00	2.000000000000000e+00

80	1.080000000000000e-09	-7.034080599788287e-01
	9.893871333531958e-01	-1.192526710147215e+00
	1.244618891669355e+00	2.000000000000000e+00

81	1.081000000000000e-09	-7.039996405161781e-01
	9.878626127884649e-01	-1.191244880443784e+00
	1.243081921516870e+00	2.000000000000000e+00

82	1.082000000000000e-09	-7.046486031966657e-01
	9.864123796957193e-01	-1.190987761240906e+00
	1.242742910925615e+00	2.000000000000000e+00

83	1.083000000000000e-09	-7.054005398001365e-01
	9.850395637907373e-01	-1.191636178447187e+00
	1.243316740478008e+00	2.000000000000000e+00

84	1.084000000000000e-09	-7.062910982160265e-01
	9.837463693216145e-01	-1.192762427573200e+00
	1.244218900973844e+00	2.000000000000000e+00

85	1.085000000000000e-09	-7.073629797241852e-01
	9.825721821652991e-01	-1.193144494834596e+00
	1.244250336141821e+00	2.000000000000000e+00

86	1.086000000000000e-09	-7.084947110202287e-01
	9.814896100299237e-01	-1.192213385902271e+00
	1.242996461865169e+00	2.000000000000000e+00

87	1.087000000000000e-09	-7.095727643561337e-01
	9.804803358688231e-01	-1.191175208939950e+00
	1.241751328367097e+00	2.000000000000000e+00

88	1.088000000000000e-09	-7.105826741021054e-01
	9.795629096257611e-01	-1.190296581315337e+00
	1.240698178620277e+00	2.000000000000000e+00

89	1.089000000000000e-09	-7.114640543455655e-01
	9.786895791813776e-01	-1.189981491923070e+00
	1.240107878462601e+00	2.000000000000000e+00

90	1.090000000000000e-09	-7.122148304686039e-01
	9.778192206408914e-01	-1.190897286976766e+00
	1.240650271062339e+00	2.000000000000000e+00

91	1.091000000000000e-09	-7.129368097144345e-01
	9.769821855573618e-01	-1.191776852112447e+00
	1.241185934930084e+00	2.000000000000000e+00

92	1.092000000000000e-09	-7.136561235212923e-01
	9.761973940283848e-01	-1.191657338258922e+00
	1.240827509246013e+00	2.000000000000000e+00

93	1.093000000000000e-09	-7.143256384135188e-01
	9.754611143232571e-01	-1.191222872731844e+00
	1.240211205266045e+00	2.000000000000000e+00

94	1.094000000000000e-09	-7.149651087107816e-01
	9.748018080318888e-01	-1.190630631856378e+00
	1.239447558962365e+00	2.000000000000000e+00

95	1.095000000000000e-09	-7.155605228658455e-01
	9.742014852664607e-01	-1.190338013849338e+00
	1.239066667388176e+00	2.000000000000000e+00

96	1.096000000000000e-09	-7.160453487778995e-01
	9.735920230612182e-01	-1.190801421608923e+00
	1.239654358002430e+00	2.000000000000000e+00

97	1.097000000000000e-09	-7.164635245195576e-01
	9.729831022354459e-01	-1.191274349474240e+00
	1.240512380425294e+00	2.000000000000000e+00

98	1.098000000000000e-09	-7.168307933592128e-01
	9.723916451213939e-01	-1.190701414190896e+00
	1.240557459795818e+00	2.000000000000000e+00

99	1.099000000000000e-09	-7.170902553143027e-01
	9.717912664836444e-01	-1.189691435169627e+00
	1.240415613906605e+00	2.000000000000000e+00

100	1.100000000000000e-09	-7.172746682896167e-01
	9.711911381422084e-01	-1.188917216164816e+00
	1.240827784080395e+00	2.000000000000000e+00

101	1.101000000000000e-09	-7.174095245126225e-01
	9.705885252052384e-01	-7.829427589501046e-01
	8.363516217253886e-01	2.000000000000000e+00

102	1.102000000000000e-09	-7.168713088677074e-01
	9.695742441065569e-01	-3.677803038952515e-01
	4.228933957271286e-01	2.000000000000000e+00

103	1.103000000000000e-09	-7.141889035600694e-01
	9.671508495233665e-01	4.248031577397418e-02
	1.444183338057821e-02	2.000000000000000e+00

104	1.104000000000000e-09	-7.072223957591568e-01
	9.617636504396160e-01	4.605943084010142e-02
	1.270153013928265e-02	2.000000000000000e+00

105	1.105000000000000e-09	-6.922195423830048e-01
	9.506391153766259e-01	4.651117367576555e-02
	1.399550308434418e-02	2.000000000000000e+00

106	1.106000000000000e-09	-6.641466890453608e-01
	9.298894206690463e-01	5.165255514190197e-02
	1.035553516899058e-02	2.000000000000000e+00

107	1.107000000000000e-09	-6.186188409808347e-01
	8.956851140491747e-01	5.706995749939898e-02
	6.104862282378879e-03	2.000000000000000e+00

108	1.108000000000000e-09	-5.536498062271650e-01
	8.454669441788057e-01	6.294028076426643e-02
	1.039574849954665e-03	2.000000000000000e+00

109	1.109000000000000e-09	-4.734990606457807e-01
	7.806562509458547e-01	7.354803887763038e-02
	-9.119376489103492e-03	2.000000000000000e+00

110	1.110000000000000e-09	-3.902012807893308e-01
	7.081916290658451e-01	8.889797932570219e-02
	-2.430865542649740e-02	2.000000000000000e+00

111	1.111000000000000e-09	-3.199195615653860e-01
	6.387978354150319e-01	1.083172059498818e-01
	-4.371591781939239e-02	2.000000000000000e+00

112	1.112000000000000e-09	-2.736492891240614e-01
	5.812236528200803e-01	1.345144771693709e-01
	-6.989947558650968e-02	2.000000000000000e+00

113	1.113000000000000e-09	-2.486850087237861e-01
	5.361535068125781e-01	1.639013843212471e-01
	-9.915427271736460e-02	2.000000000000000e+00

114	1.114000000000000e-09	-2.317014837914813e-01
	4.969477427134075e-01	1.896141295699476e-01
	-1.245454006495150e-01	2.000000000000000e+00

115	1.115000000000000e-09	-2.116806001237401e-01
	4.571206251787827e-01	2.060484021445949e-01
	-1.404803018134312e-01	2.000000000000000e+00

116	1.116000000000000e-09	-1.906854045522791e-01
	4.176179874136309e-01	2.099819252506495e-01
	-1.438548664834252e-01	2.000000000000000e+00

117	1.117000000000000e-09	-1.768011261610970e-01
	3.834823278223252e-01	2.028252994584881e-01
	-1.362511538792121e-01	2.000000000000000e+00

118	1.118000000000000e-09	-1.700302095458842e-01
	3.552472725976347e-01	1.903351454958405e-01
	-1.235539752606287e-01	2.000000000000000e+00

119	1.119000000000000e-09	-1.638320822930065e-01
	3.291704464477275e-01	1.804323352281748e-01
	-1.136853299242191e-01	2.000000000000000e+00

120	1.120000000000000e-09	-1.564115025497654e-01
	3.039646333592909e-01	1.798615556393221e-01
	-1.132505072796302e-01	2.000000000000000e+00

121	1.121000000000000e-09	-1.510669772598392e-01
	2.814891466463614e-01	1.900334572558364e-01
	-1.234716788150079e-01	2.000000000000000e+00

122	1.122000000000000e-09	-1.480847469531115e-01
	2.619676146069956e-01	2.036855872024270e-01
	-1.369797713077593e-01	2.000000000000000e+00

123	1.123000000000000e-09	-1.452764080865521e-01
	2.440467392527032e-01	2.098058999680994e-01
	-1.428062963954994e-01	2.000000000000000e+00

124	1.124000000000000e-09	-1.426125906637899e-01
	2.275743143662167e-01	2.074785114576345e-01
	-1.401989738628588e-01	2.000000000000000e+00

125	1.125000000000000e-09	-1.408953993863082e-01
	2.129462935729454e-01	2.038401825693658e-01
	-1.364576908035391e-01	2.000000000000000e+00

126	1.126000000000000e-09	-1.397043925060419e-01
	1.998508125097782e-01	2.038945741509069e-01
	-1.366061389522956e-01	2.000000000000000e+00

127	1.127000000000000e-09	-1.386637207423170e-01
	1.879738533763744e-01	2.063591929384253e-01
	-1.392235083006329e-01	2.000000000000000e+00

128	1.128000000000000e-09	-1.380381299462238e-01
	1.773915376453395e-01	2.048882974283027e-01
	-1.378118613755445e-01	2.000000000000000e+00

129	1.129000000000000e-09	-1.376536822164835e-01
	1.679304196427178e-01	1.958225883006362e-01
	-1.286926483915733e-01	2.000000000000000e+00

130	1.130000000000000e-09	-1.372722483774254e-01
	1.593677568871923e-01	1.863679769019497e-01
	-1.192025734045867e-01	2.000000000000000e+00

131	1.131000000000000e-09	-1.369926640003624e-01
	1.516863069667455e-01	1.842248292932021e-01
	-1.172032543160604e-01	2.000000000000000e+00

132	1.132000000000000e-09	-1.366713179095021e-01
	1.447299734725302e-01	1.863017524887313e-01
	-1.196453500674466e-01	2.000000000000000e+00

133	1.133000000000000e-09	-1.361843749730932e-01
	1.383488100354726e-01	1.855292559017429e-01
	-1.193683045029072e-01	2.000000000000000e+00

134	1.134000000000000e-09	-1.355984704090933e-01
	1.325104391045280e-01	1.831118917940772e-01
	-1.174950061770869e-01	2.000000000000000e+00

135	1.135000000000000e-09	-1.348869732803684e-01
	1.271328506701633e-01	1.826961342493825e-01
	-1.177092576951612e-01	2.000000000000000e+00

136	1.136000000000000e-09	-1.340630585684975e-01
	1.221600754051909e-01	1.819883306486575e-01
	-1.178083566528802e-01	2.000000000000000e+00

137	1.137000000000000e-09	-1.332368720190732e-01
	1.176021725108434e-01	1.785611678812052e-01
	-1.153562847495262e-01	2.000000000000000e+00

138	1.138000000000000e-09	-1.324422657218233e-01
	1.134323115803772e-01	1.748753283653311e-01
	-1.126287697370568e-01	2.000000000000000e+00

139	1.139000000000000e-09	-1.317006298828896e-01
	1.096213413409894e-01	1.740094789024066e-01
	-1.124082808589921e-01	2.000000000000000e+00

140	1.140000000000000e-09	-1.310660025573714e-01
	1.061671684844458e-01	1.751724875059789e-01
	-1.136262733711613e-01	2.000000000000000e+00

141	1.141000000000000e-09	-1.304849040029880e-01
	1.030089195933720e-01	1.756692891080155e-01
	-1.133690410396365e-01	2.000000000000000e+00

142	1.142000000000000e-09	-1.298816257924495e-01
	1.000724208445992e-01	1.756412528325982e-01
	-1.115916733367040e-01	2.000000000000000e+00

143	1.143000000000000e-09	-1.292988172600228e-01
	9.735883240377459e-02	1.762208244580623e-01
	-1.093608048550520e-01	2.000000000000000e+00

144	1.144000000000000e-09	-1.287192219165551e-01
	9.483972659109378e-02	1.766663582319570e-01
	-1.061668115490513e-01	2.000000000000000e+00

145	1.145000000000000e-09	-1.281262728753967e-01
	9.248804505302327e-02	1.776872579564536e-01
	-1.032752349271237e-01	2.000000000000000e+00

146	1.146000000000000e-09	-1.276116716339581e-01
	9.034487948565816e-02	1.800391586703833e-01
	-1.020996295164740e-01	2.000000000000000e+00

147	1.147000000000000e-09	-1.271619606959325e-01
	8.839065206922776e-02	1.822202122754263e-01
	-1.015977236773288e-01	2.000000000000000e+00

148	1.148000000000000e-09	-1.267347724819909e-01
	8.658526806501131e-02	1.825206407357467e-01
	-1.001396289716487e-01	2.000000000000000e+00

149	1.149000000000000e-09	-1.263609549176009e-01
	8.493299496781039e-02	1.820490646622567e-01
	-9.856262848553071e-02	2.000000000000000e+00

150	1.150000000000000e-09	-1.260015949423409e-01
	8.339875663352458e-02	1.821217129475102e-01
	-9.777268428159487e-02	2.000000000000000e+00

151	1.151000000000000e-09	-1.255190567003349e-01
	8.188373562137030e-02	-2.226210652144894e-01
	3.078555130086961e-01	2.000000000000000e+00

152	1.152000000000000e-09	-1.251939563252415e-01
	8.054974981662207e-02	-6.362767958279307e-01
	7.223594766483257e-01	2.000000000000000e+00

153	1.153000000000000e-09	-1.257859140955456e-01
	7.989427757686016e-02	-1.045121853834741e+00
	1.131749786435137e+00	2.000000000000000e+00

154	1.154000000000000e-09	-1.279559002195611e-01
	8.041444387863611e-02	-1.047603534905811e+00
	1.134371005694920e+00	2.000000000000000e+00

155	1.155000000000000e-09	-1.327827633356810e-01
	8.292466340189612e-02	-1.046484011181802e+00
	1.133254269489746e+00	2.000000000000000e+00

156	1.156000000000000e-09	-1.419321260048321e-01
	8.869828042865899e-02	-1.048842599799528e+00
	1.135872346176170e+00	2.000000000000000e+00

157	1.157000000000000e-09	-1.568768846783604e-01
	9.900873143043763e-02	-1.050033170756693e+00
	1.137689032424046e+00	2.000000000000000e+00

158	1.158000000000000e-09	-1.782718372649918e-01
	1.146976734127570e-01	-1.049433120753960e+00
	1.137883437730966e+00	2.000000000000000e+00

159	1.159000000000000e-09	-2.046831527500781e-01
	1.352743066517484e-01	-1.050109129360260e+00
	1.139374789213146e+00	2.000000000000000e+00

160	1.160000000000000e-09	-2.320733233552629e-01
	1.584004321990755e-01	-1.050529698832493e+00
	1.140712743192518e+00	2.000000000000000e+00

161	1.161000000000000e-09	-2.549629317890225e-01
	1.804321351630108e-01	-1.049140272802357e+00
	1.140398645482878e+00	2.000000000000000e+00

162	1.162000000000000e-09	-2.695729693692302e-01
	1.983614414656626e-01	-1.049033414817916e+00
	1.141337316098350e+00	2.000000000000000e+00

163	1.163000000000000e-09	-2.766805760896067e-01
	2.118526977509675e-01	-1.050026189393326e+00
	1.143108817751703e+00	2.000000000000000e+00

164	1.164000000000000e-09	-2.805326162608612e-01
	2.229596847228420e-01	-1.050511153709079e+00
	1.144070178849760e+00	2.000000000000000e+00

165	1.165000000000000e-09	-2.845544918102988e-01
	2.336388970177109e-01	-1.050911949649288e+00
	1.144737157891708e+00	2.000000000000000e+00

166	1.166000000000000e-09	-2.878327753993351e-01
	2.433662666122479e-01	-1.051981337147816e+00
	1.145943667527308e+00	2.000000000000000e+00

167	1.167000000000000e-09	-2.875307766818742e-01
	2.502921931595325e-01	-1.054007880244332e+00
	1.148102408624769e+00	2.000000000000000e+00

168	1.168000000000000e-09	-2.836914070242945e-01
	2.541849908767951e-01	-1.056811184410089e+00
	1.151205206772678e+00	2.000000000000000e+00

169	1.169000000000000e-09	-2.788110024320804e-01
	2.564270492518462e-01	-1.060130129972463e+00
	1.155039331611502e+00	2.000000000000000e+00

170	1.170000000000000e-09	-2.740541707401491e-01
	2.577794008572916e-01	-1.064341810889791e+00
	1.159835064801630e+00	2.000000000000000e+00

171	1.171000000000000e-09	-2.690714992278275e-01
	2.581263324934747e-01	-1.069959813211537e+00
	1.165905852897363e+00	2.000000000000000e+00

172	1.172000000000000e-09	-2.645905707786083e-01
	2.580077572529125e-01	-1.076736269593616e+00
	1.172897308620894e+00	2.000000000000000e+00

173	1.173000000000000e-09	-2.618914405706649e-01
	2.583769942268695e-01	-1.082920365757699e+00
	1.179096070502692e+00	2.000000000000000e+00

174	1.174000000000000e-09	-2.609926206931894e-01
	2.594727736864639e-01	-1.088371888399391e+00
	1.184528208018396e+00	2.000000000000000e+00

175	1.175000000000000e-09	-2.611460481621610e-01
	2.610217013709763e-01	-1.092612172246098e+00
	1.188894042016172e+00	2.000000000000000e+00

176	1.176000000000000e-09	-2.616460624788421e-01
	2.626953787729290e-01	-1.093607371318629e+00
	1.190185739880128e+00	2.000000000000000e+00

177	1.177000000000000e-09	-2.618249395458256e-01
	2.641177919892506e-01	-1.091878221144040e+00
	1.188774321684278e+00	2.000000000000000e+00

178	1.178000000000000e-09	-2.612890538343284e-01
	2.650278013116724e-01	-1.088440512783104e+00
	1.185507115866975e+00	2.000000000000000e+00

179	1.179000000000000e-09	-2.603218386844040e-01
	2.655687960275747e-01	-1.083749108709838e+00
	1.180809353979204e+00	2.000000000000000e+00

180	1.180000000000000e-09	-2.595089335656157e-01
	2.661071576500977e-01	-1.079374163257823e+00
	1.176374070286964e+00	2.000000000000000e+00

181	1.181000000000000e-09	-2.592278544643233e-01
	2.669239186551376e-01	-1.076861163351823e+00
	1.173892386547987e+00	2.000000000000000e+00

182	1.182000000000000e-09	-2.595056936009361e-01
	2.680980433694821e-01	-1.076173758467487e+00
	1.173340863651916e+00	2.000000000000000e+00

183	1.183000000000000e-09	-2.599082164279274e-01
	2.694014139126402e-01	-1.076840526982238e+00
	1.174116431742243e+00	2.000000000000000e+00

184	1.184000000000000e-09	-2.600040228591540e-01
	2.705592952024048e-01	-1.078035786801515e+00
	1.175277868323403e+00	2.000000000000000e+00

185	1.185000000000000e-09	-2.598605856918197e-01
	2.715748111423463e-01	-1.078297017959578e+00
	1.175392709238049e+00	2.000000000000000e+00

186	1.186000000000000e-09	-2.598394623437789e-01
	2.726440265932552e-01	-1.076628485680802e+00
	1.173579570790309e+00	2.000000000000000e+00

187	1.187000000000000e-09	-2.602031995944940e-01
	2.739290859677448e-01	-1.074573252253602e+00
	1.171430735187360e+00	2.000000000000000e+00

188	1.188000000000000e-09	-2.608187719949200e-01
	2.753581352886210e-01	-1.072965461865906e+00
	1.169716620440122e+00	2.000000000000000e+00

189	1.189000000000000e-09	-2.612380536510142e-01
	2.766441259158963e-01	-1.072365286504560e+00
	1.168918558635002e+00	2.000000000000000e+00

190	1.190000000000000e-09	-2.612836937534402e-01
	2.776398791473644e-01	-1.073279843841802e+00
	1.169561976359891e+00	2.000000000000000e+00

191	1.191000000000000e-09	-2.612790488591822e-01
	2.785154511940474e-01	-1.074209864505151e+00
	1.170239967884394e+00	2.000000000000000e+00

192	1.192000000000000e-09	-2.615481073011106e-01
	2.794806213692807e-01	-1.073888917631765e+00
	1.169735379058799e+00	2.000000000000000e+00

193	1.193000000000000e-09	-2.619986245646214e-01
	2.805118694139773e-01	-1.072816072416260e+00
	1.168530377570040e+00	2.000000000000000e+00

194	1.194000000000000e-09	-2.623328967480829e-01
	2.814466537792689e-01	-1.071503269479829e+00
	1.167150755746101e+00	2.000000000000000e+00

195	1.195000000000000e-09	-2.624446876497573e-01
	2.822193467739395e-01	-1.070850393278751e+00
	1.166591204861558e+00	2.000000000000000e+00

196	1.196000000000000e-09	-2.625132099570714e-01
	2.829372617195904e-01	-1.071198895476113e+00
	1.167306744614264e+00	2.000000000000000e+00

197	1.197000000000000e-09	-2.627142413487318e-01
	2.837157407080332e-01	-1.071561701896151e+00
	1.168376245018944e+00	2.000000000000000e+00

198	1.198000000000000e-09	-2.628853396290657e-01
	2.844590664710563e-01	-1.070526920744501e+00
	1.168416956061848e+00	2.000000000000000e+00

199	1.199000000000000e-09	-2.628594226866024e-01
	2.850477928413673e-01	-1.068663349908539e+00
	1.168037524436166e+00	2.000000000000000e+00

200	1.200000000000000e-09	-2.628611750101865e-01
	2.855997735135334e-01	-1.067091163272074e+00
	1.168400976492294e+00	2.000000000000000e+00

201	1.201000000000000e-09	-2.631457101002593e-01
	2.862767863875301e-01	-7.957354198587908e-01
	8.994084729745654e-01	2.000000000000000e+00

202	1.202000000000000e-09	-2.634977360883777e-01
	2.869659798650748e-01	-5.182975908089907e-01
	6.246509023746114e-01	2.000000000000000e+00

203	1.203000000000000e-09	-2.635585767634617e-01
	2.874486347994207e-01	-2.436602526380613e-01
	3.528718589280837e-01	2.000000000000000e+00

204	1.204000000000000e-09	-2.634567411151133e-01
	2.877928835098543e-01	-2.394843152807332e-01
	3.515868026531918e-01	2.000000000000000e+00

205	1.205000000000000e-09	-2.634208928340159e-01
	2.881425107874260e-01	-2.371700831551684e-01
	3.520119067253407e-01	2.000000000000000e+00

206	1.206000000000000e-09	-2.634117588155437e-01
	2.884808794805707e-01	-2.311545941116435e-01
	3.483859615799909e-01	2.000000000000000e+00

207	1.207000000000000e-09	-2.633778254095300e-01
	2.887698717344441e-01	-2.230343538789593e-01
	3.421638368156775e-01	2.000000000000000e+00

208	1.208000000000000e-09	-2.633712808224354e-01
	2.890287322716860e-01	-2.108322731011997e-01
	3.313008577892325e-01	2.000000000000000e+00

209	1.209000000000000e-09	-2.634098733044877e-01
	2.892613659699468e-01	-1.899345046470550e-01
	3.111873748301183e-01	2.000000000000000e+00
