File Format: MDS
Revision:  2.01
Title: netlist.log
Date: Fri Apr  8 17:03:24 2022
Plotname: TRAN Tran1[1] <netlist.log>   time=(0 s->5 ns)
Flags: real 
No. Sweep Variables: 0
Sweep Variables:	
No. Variables: 6
Variables:	0	time	time type=real indep=yes
		1	Vout_PAM_2	voltage type=real indep=no
		2	Vout_PAM_1	voltage type=real indep=no
		3	Vin_PAM_2	voltage type=real indep=no
		4	Vin_PAM_1	voltage type=real indep=no
		5	tranorder	none type=real indep=no mixop=none
Values:
0	0.000000000000000e+00	-9.899028646662721e-01
	9.899028646662721e-01	-1.006972135283849e+00
	1.006972135283849e+00	1.000000000000000e+00

1	1.000000000000000e-12	-9.899028646662719e-01
	9.899028646662719e-01	-1.006972135283849e+00
	1.006972135283849e+00	1.000000000000000e+00

2	2.000000000000000e-12	-9.899028646662716e-01
	9.899028646662716e-01	-1.006972135283849e+00
	1.006972135283849e+00	1.000000000000000e+00

3	3.000000000000000e-12	-9.899028646662714e-01
	9.899028646662714e-01	-1.006972135283850e+00
	1.006972135283849e+00	2.000000000000000e+00

4	4.000000000000000e-12	-9.899028646662712e-01
	9.899028646662712e-01	-1.006972135283850e+00
	1.006972135283849e+00	2.000000000000000e+00

5	5.000000000000000e-12	-9.899028646662710e-01
	9.899028646662710e-01	-1.006972135283850e+00
	1.006972135283849e+00	2.000000000000000e+00

6	6.000000000000000e-12	-9.899028646662709e-01
	9.899028646662708e-01	-1.006972135283850e+00
	1.006972135283850e+00	2.000000000000000e+00

7	7.000000000000000e-12	-9.899028646662706e-01
	9.899028646662706e-01	-1.006972135283850e+00
	1.006972135283849e+00	2.000000000000000e+00

8	8.000000000000000e-12	-9.899028646662705e-01
	9.899028646662704e-01	-1.006972135283850e+00
	1.006972135283849e+00	2.000000000000000e+00

9	9.000000000000000e-12	-9.899028646662706e-01
	9.899028646662703e-01	-1.006972135283850e+00
	1.006972135283849e+00	2.000000000000000e+00

10	9.999999999999999e-12	-9.899028646662704e-01
	9.899028646662701e-01	-1.006972135283850e+00
	1.006972135283849e+00	2.000000000000000e+00

11	1.100000000000000e-11	-9.899028646662703e-01
	9.899028646662700e-01	-1.006972135283850e+00
	1.006972135283849e+00	2.000000000000000e+00

12	1.200000000000000e-11	-9.899028646662701e-01
	9.899028646662702e-01	-1.006972135283850e+00
	1.006972135283849e+00	2.000000000000000e+00

13	1.300000000000000e-11	-9.899028646662700e-01
	9.899028646662703e-01	-1.006972135283850e+00
	1.006972135283849e+00	2.000000000000000e+00

14	1.400000000000000e-11	-9.899028646662702e-01
	9.899028646662701e-01	-1.006972135283850e+00
	1.006972135283849e+00	2.000000000000000e+00

15	1.500000000000000e-11	-9.899028646662703e-01
	9.899028646662700e-01	-1.006972135283850e+00
	1.006972135283849e+00	2.000000000000000e+00

16	1.600000000000000e-11	-9.899028646662702e-01
	9.899028646662702e-01	-1.006972135283850e+00
	1.006972135283850e+00	2.000000000000000e+00

17	1.700000000000000e-11	-9.899028646662704e-01
	9.899028646662703e-01	-1.006972135283850e+00
	1.006972135283849e+00	2.000000000000000e+00

18	1.800000000000000e-11	-9.899028646662705e-01
	9.899028646662701e-01	-1.006972135283850e+00
	1.006972135283849e+00	2.000000000000000e+00

19	1.900000000000000e-11	-9.899028646662708e-01
	9.899028646662700e-01	-1.006972135283850e+00
	1.006972135283849e+00	2.000000000000000e+00

20	2.000000000000000e-11	-9.899028646662709e-01
	9.899028646662702e-01	-1.006972135283850e+00
	1.006972135283849e+00	2.000000000000000e+00

21	2.100000000000000e-11	-9.899028646662706e-01
	9.899028646662703e-01	-1.006972135283850e+00
	1.006972135283849e+00	2.000000000000000e+00

22	2.200000000000000e-11	-9.899028646662705e-01
	9.899028646662701e-01	-1.006972135283850e+00
	1.006972135283850e+00	2.000000000000000e+00

23	2.300000000000000e-11	-9.899028646662706e-01
	9.899028646662700e-01	-1.006972135283850e+00
	1.006972135283849e+00	2.000000000000000e+00

24	2.400000000000000e-11	-9.899028646662705e-01
	9.899028646662702e-01	-1.006972135283850e+00
	1.006972135283849e+00	2.000000000000000e+00

25	2.500000000000000e-11	-9.899028646662706e-01
	9.899028646662703e-01	-1.006972135283850e+00
	1.006972135283849e+00	2.000000000000000e+00

26	2.600000000000000e-11	-9.899028646662704e-01
	9.899028646662701e-01	-1.006972135283850e+00
	1.006972135283849e+00	2.000000000000000e+00

27	2.700000000000000e-11	-9.899028646662703e-01
	9.899028646662700e-01	-1.006972135283850e+00
	1.006972135283849e+00	2.000000000000000e+00

28	2.800000000000000e-11	-9.899028646662702e-01
	9.899028646662702e-01	-1.006972135283850e+00
	1.006972135283849e+00	2.000000000000000e+00

29	2.900000000000000e-11	-9.899028646662704e-01
	9.899028646662703e-01	-1.006972135283850e+00
	1.006972135283849e+00	2.000000000000000e+00

30	3.000000000000000e-11	-9.899028646662705e-01
	9.899028646662701e-01	-1.006972135283850e+00
	1.006972135283849e+00	2.000000000000000e+00

31	3.100000000000000e-11	-9.899028646662708e-01
	9.899028646662700e-01	-1.006972135283850e+00
	1.006972135283849e+00	2.000000000000000e+00

32	3.200000000000000e-11	-9.899028646662709e-01
	9.899028646662702e-01	-1.006972135283850e+00
	1.006972135283849e+00	2.000000000000000e+00

33	3.300000000000000e-11	-9.899028646662706e-01
	9.899028646662703e-01	-1.006972135283850e+00
	1.006972135283849e+00	2.000000000000000e+00

34	3.400000000000000e-11	-9.899028646662705e-01
	9.899028646662701e-01	-1.006972135283850e+00
	1.006972135283849e+00	2.000000000000000e+00

35	3.500000000000000e-11	-9.899028646662708e-01
	9.899028646662700e-01	-1.006972135283850e+00
	1.006972135283849e+00	2.000000000000000e+00

36	3.600000000000000e-11	-9.899028646662709e-01
	9.899028646662702e-01	-1.006972135283850e+00
	1.006972135283849e+00	2.000000000000000e+00

37	3.700000000000000e-11	-9.899028646662706e-01
	9.899028646662703e-01	-1.006972135283850e+00
	1.006972135283849e+00	2.000000000000000e+00

38	3.800000000000000e-11	-9.899028646662705e-01
	9.899028646662701e-01	-1.006972135283850e+00
	1.006972135283849e+00	2.000000000000000e+00

39	3.900000000000000e-11	-9.899028646662708e-01
	9.899028646662700e-01	-1.006972135283850e+00
	1.006972135283849e+00	2.000000000000000e+00

40	4.000000000000000e-11	-9.899028646662709e-01
	9.899028646662702e-01	-1.006972135283850e+00
	1.006972135283849e+00	2.000000000000000e+00

41	4.100000000000000e-11	-9.899028646662706e-01
	9.899028646662703e-01	-1.006972135283850e+00
	1.006972135283849e+00	2.000000000000000e+00

42	4.200000000000000e-11	-9.899028646662705e-01
	9.899028646662701e-01	-1.006972135283850e+00
	1.006972135283849e+00	2.000000000000000e+00

43	4.300000000000000e-11	-9.899028646662708e-01
	9.899028646662700e-01	-1.006972135283850e+00
	1.006972135283849e+00	2.000000000000000e+00

44	4.400000000000000e-11	-9.899028646662709e-01
	9.899028646662702e-01	-1.006972135283850e+00
	1.006972135283850e+00	2.000000000000000e+00

45	4.500000000000000e-11	-9.899028646662706e-01
	9.899028646662703e-01	-1.006972135283849e+00
	1.006972135283849e+00	2.000000000000000e+00

46	4.600000000000000e-11	-9.899028646662705e-01
	9.899028646662701e-01	-1.006972135283850e+00
	1.006972135283849e+00	2.000000000000000e+00

47	4.700000000000000e-11	-9.899028646662706e-01
	9.899028646662700e-01	-1.006972135283850e+00
	1.006972135283849e+00	2.000000000000000e+00

48	4.800000000000000e-11	-9.899028646662704e-01
	9.899028646662702e-01	-1.006972135283850e+00
	1.006972135283849e+00	2.000000000000000e+00

49	4.900000000000000e-11	-9.899028646662703e-01
	9.899028646662703e-01	-1.006972135283850e+00
	1.006972135283849e+00	2.000000000000000e+00

50	5.000000000000000e-11	-9.899028646662701e-01
	9.899028646662701e-01	-1.006972135283850e+00
	1.006972135283849e+00	2.000000000000000e+00

51	5.100000000000000e-11	-9.897918371575064e-01
	9.897918371575065e-01	-6.551006739281003e-01
	6.551006739300637e-01	2.000000000000000e+00

52	5.200000000000000e-11	-9.896598233749991e-01
	9.896598233749990e-01	-2.920025600423464e-01
	2.920025600423953e-01	2.000000000000000e+00

53	5.300000000000000e-11	-9.895534327733495e-01
	9.895534327733482e-01	5.947691341133756e-02
	-5.947691341136152e-02	2.000000000000000e+00

54	5.400000000000000e-11	-9.895238738830376e-01
	9.895238738830366e-01	6.498133719392296e-02
	-6.498133719264809e-02	2.000000000000000e+00

55	5.500000000000000e-11	-9.895962687829856e-01
	9.895962687829857e-01	6.338653968752721e-02
	-6.338653968746805e-02	2.000000000000000e+00

56	5.600000000000000e-11	-9.896308581084728e-01
	9.896308581084713e-01	6.696824100155996e-02
	-6.696824100156962e-02	2.000000000000000e+00

57	5.700000000000000e-11	-9.896597735207366e-01
	9.896597735207356e-01	6.880406170961993e-02
	-6.880406170967093e-02	2.000000000000000e+00

58	5.800000000000000e-11	-9.896827059824996e-01
	9.896827059825004e-01	6.867367685901961e-02
	-6.867367685898432e-02	2.000000000000000e+00

59	5.900000000000000e-11	-9.897052150096589e-01
	9.897052150096578e-01	6.964288850466162e-02
	-6.964288850464417e-02	2.000000000000000e+00

60	6.000000000000000e-11	-9.897156700365334e-01
	9.897156700365329e-01	7.043279560675872e-02
	-7.043279560680400e-02	2.000000000000000e+00

61	6.100000000000000e-11	-9.897236757661659e-01
	9.897236757661674e-01	7.076412150321115e-02
	-7.076412150319046e-02	2.000000000000000e+00

62	6.199999999999999e-11	-9.897358079157959e-01
	9.897358079157953e-01	7.119386097016869e-02
	-7.119386097014047e-02	2.000000000000000e+00

63	6.300000000000000e-11	-9.897315428939095e-01
	9.897315428939089e-01	7.156841779593152e-02
	-7.156841779597491e-02	2.000000000000000e+00

64	6.400000000000000e-11	-9.897203385627955e-01
	9.897203385627967e-01	7.183239977908211e-02
	-7.183239977907241e-02	2.000000000000000e+00

65	6.500000000000000e-11	-9.897187839746191e-01
	9.897187839746182e-01	7.231594077411677e-02
	-7.231594077408128e-02	2.000000000000000e+00

66	6.600000000000000e-11	-9.897070108350214e-01
	9.897070108350204e-01	7.258291627686639e-02
	-7.258291627690808e-02	2.000000000000000e+00

67	6.700000000000000e-11	-9.896813918121505e-01
	9.896813918121519e-01	7.272465310642098e-02
	-7.272465310641797e-02	2.000000000000000e+00

68	6.800000000000000e-11	-9.896692256759013e-01
	9.896692256759008e-01	7.324810176091227e-02
	-7.324810176087322e-02	2.000000000000000e+00

69	6.899999999999999e-11	-9.896540201409508e-01
	9.896540201409495e-01	7.352899573840707e-02
	-7.352899573844679e-02	2.000000000000000e+00

70	7.000000000000000e-11	-9.896262782666931e-01
	9.896262782666939e-01	7.383111993611942e-02
	-7.383111993612125e-02	2.000000000000000e+00

71	7.100000000000000e-11	-9.896135917949109e-01
	9.896135917949103e-01	7.444007746545868e-02
	-7.444007746541866e-02	2.000000000000000e+00

72	7.200000000000000e-11	-9.895952228933985e-01
	9.895952228933970e-01	7.443031634027571e-02
	-7.443031634031046e-02	2.000000000000000e+00

73	7.299999999999999e-11	-9.895664503756896e-01
	9.895664503756901e-01	7.482438873692837e-02
	-7.482438873693649e-02	2.000000000000000e+00

74	7.400000000000000e-11	-9.895560798733302e-01
	9.895560798733296e-01	7.540929008037212e-02
	-7.540929008033213e-02	2.000000000000000e+00

75	7.500000000000000e-11	-9.895367836140335e-01
	9.895367836140316e-01	7.529429994384905e-02
	-7.529429994387632e-02	2.000000000000000e+00

76	7.600000000000000e-11	-9.895074861318564e-01
	9.895074861318570e-01	7.572368291417712e-02
	-7.572368291419289e-02	2.000000000000000e+00

77	7.699999999999999e-11	-9.895000480257222e-01
	9.895000480257224e-01	7.616752647346392e-02
	-7.616752647342356e-02	2.000000000000000e+00

78	7.800000000000000e-11	-9.895018312013540e-01
	9.895018312013525e-01	7.633243381906385e-02
	-7.633243381908489e-02	2.000000000000000e+00

79	7.900000000000000e-11	-9.894904176711732e-01
	9.894904176711737e-01	7.653419147920082e-02
	-7.653419147922232e-02	2.000000000000000e+00

80	8.000000000000000e-11	-9.894805946047194e-01
	9.894805946047198e-01	7.684683506406645e-02
	-7.684683506402558e-02	2.000000000000000e+00

81	8.100000000000000e-11	-9.894779840596378e-01
	9.894779840596365e-01	7.692684910832373e-02
	-7.692684910834013e-02	2.000000000000000e+00

82	8.200000000000000e-11	-9.894610532449433e-01
	9.894610532449437e-01	7.714282163085180e-02
	-7.714282163087746e-02	2.000000000000000e+00

83	8.300000000000000e-11	-9.894493590985081e-01
	9.894493590985082e-01	7.746363491580016e-02
	-7.746363491576007e-02	2.000000000000000e+00

84	8.399999999999999e-11	-9.894429955138849e-01
	9.894429955138829e-01	7.751127225065765e-02
	-7.751127225066955e-02	2.000000000000000e+00

85	8.500000000000000e-11	-9.894155193823040e-01
	9.894155193823040e-01	7.745951063048147e-02
	-7.745951063050938e-02	2.000000000000000e+00

86	8.600000000000000e-11	-9.893979371905213e-01
	9.893979371905216e-01	7.803709699186409e-02
	-7.803709699182788e-02	2.000000000000000e+00

87	8.700000000000000e-11	-9.893895976399015e-01
	9.893895976398999e-01	7.809018382459894e-02
	-7.809018382460471e-02	2.000000000000000e+00

88	8.799999999999999e-11	-9.893576538528134e-01
	9.893576538528133e-01	7.815309428995786e-02
	-7.815309428998707e-02	2.000000000000000e+00

89	8.900000000000000e-11	-9.893287465082864e-01
	9.893287465082865e-01	7.862471665254903e-02
	-7.862471665251841e-02	2.000000000000000e+00

90	9.000000000000000e-11	-9.893093481763275e-01
	9.893093481763258e-01	7.866883382633279e-02
	-7.866883382633204e-02	2.000000000000000e+00

91	9.100000000000000e-11	-9.892766280988197e-01
	9.892766280988198e-01	7.881859571349784e-02
	-7.881859571352870e-02	2.000000000000000e+00

92	9.199999999999999e-11	-9.892406138124600e-01
	9.892406138124613e-01	7.927115319161684e-02
	-7.927115319159074e-02	2.000000000000000e+00

93	9.300000000000000e-11	-9.892135377332026e-01
	9.892135377332018e-01	7.924395819741682e-02
	-7.924395819740984e-02	2.000000000000000e+00

94	9.400000000000000e-11	-9.891823287849638e-01
	9.891823287849640e-01	7.945167114620359e-02
	-7.945167114623657e-02	2.000000000000000e+00

95	9.500000000000000e-11	-9.891528430729754e-01
	9.891528430729766e-01	7.985190661547426e-02
	-7.985190661545229e-02	2.000000000000000e+00

96	9.600000000000000e-11	-9.891423739685242e-01
	9.891423739685233e-01	8.005611105547306e-02
	-8.005611105546116e-02	2.000000000000000e+00

97	9.700000000000000e-11	-9.891224945347555e-01
	9.891224945347551e-01	8.004773922593883e-02
	-8.004773922597162e-02	2.000000000000000e+00

98	9.800000000000000e-11	-9.890956740443769e-01
	9.890956740443779e-01	8.038854184653652e-02
	-8.038854184651915e-02	2.000000000000000e+00

99	9.899999999999999e-11	-9.890922156718481e-01
	9.890922156718468e-01	8.059610748277928e-02
	-8.059610748276427e-02	2.000000000000000e+00

100	1.000000000000000e-10	-9.890756524720784e-01
	9.890756524720773e-01	8.060844488966051e-02
	-8.060844488969079e-02	2.000000000000000e+00

101	1.010000000000000e-10	-9.891615533187904e-01
	9.891615533187912e-01	-2.709831086449940e-01
	2.709831086463151e-01	2.000000000000000e+00

102	1.020000000000000e-10	-9.892908077932918e-01
	9.892908077932907e-01	-6.339357601306224e-01
	6.339357601306725e-01	2.000000000000000e+00

103	1.030000000000000e-10	-9.893931893352159e-01
	9.893931893352138e-01	-9.855166252456389e-01
	9.855166252455958e-01	2.000000000000000e+00

104	1.040000000000000e-10	-9.894112349784480e-01
	9.894112349784476e-01	-9.905968847317284e-01
	9.905968847304025e-01	2.000000000000000e+00

105	1.050000000000000e-10	-9.893321806963331e-01
	9.893321806963318e-01	-9.888868309840287e-01
	9.888868309840342e-01	2.000000000000000e+00

106	1.060000000000000e-10	-9.892846773048813e-01
	9.892846773048795e-01	-9.925089340153764e-01
	9.925089340153727e-01	2.000000000000000e+00

107	1.070000000000000e-10	-9.892338250022199e-01
	9.892338250022200e-01	-9.940040431772391e-01
	9.940040431772426e-01	2.000000000000000e+00

108	1.080000000000000e-10	-9.891970392316787e-01
	9.891970392316778e-01	-9.937360894943458e-01
	9.937360894943631e-01	2.000000000000000e+00

109	1.090000000000000e-10	-9.891557396854477e-01
	9.891557396854458e-01	-9.946931351493162e-01
	9.946931351493000e-01	2.000000000000000e+00

110	1.100000000000000e-10	-9.891036826980943e-01
	9.891036826980938e-01	-9.952564363341387e-01
	9.952564363341349e-01	2.000000000000000e+00

111	1.110000000000000e-10	-9.890664377067573e-01
	9.890664377067558e-01	-9.953864052708281e-01
	9.953864052708460e-01	2.000000000000000e+00

112	1.120000000000000e-10	-9.890349641785514e-01
	9.890349641785494e-01	-9.957685076637791e-01
	9.957685076637665e-01	2.000000000000000e+00

113	1.130000000000000e-10	-9.889999589329974e-01
	9.889999589329972e-01	-9.959066430168535e-01
	9.959066430168454e-01	2.000000000000000e+00

114	1.140000000000000e-10	-9.889820331495385e-01
	9.889820331495378e-01	-9.959332895062062e-01
	9.959332895062257e-01	2.000000000000000e+00

115	1.150000000000000e-10	-9.889605432077908e-01
	9.889605432077887e-01	-9.964293544960661e-01
	9.964293544960562e-01	2.000000000000000e+00

116	1.160000000000000e-10	-9.889364660148143e-01
	9.889364660148139e-01	-9.964641958618291e-01
	9.964641958618178e-01	2.000000000000000e+00

117	1.170000000000000e-10	-9.889364182558978e-01
	9.889364182558973e-01	-9.963360840669686e-01
	9.963360840669877e-01	2.000000000000000e+00

118	1.180000000000000e-10	-9.889250264665812e-01
	9.889250264665793e-01	-9.969183891093102e-01
	9.969183891093040e-01	2.000000000000000e+00

119	1.190000000000000e-10	-9.889076346557605e-01
	9.889076346557601e-01	-9.969764515520285e-01
	9.969764515520135e-01	2.000000000000000e+00

120	1.200000000000000e-10	-9.889160358087072e-01
	9.889160358087072e-01	-9.970552963765669e-01
	9.970552963765845e-01	2.000000000000000e+00

121	1.210000000000000e-10	-9.889245189454826e-01
	9.889245189454813e-01	-9.976537610923548e-01
	9.976537610923528e-01	2.000000000000000e+00

122	1.220000000000000e-10	-9.889268220947731e-01
	9.889268220947728e-01	-9.974659002915612e-01
	9.974659002915459e-01	2.000000000000000e+00

123	1.230000000000000e-10	-9.889363277936584e-01
	9.889363277936581e-01	-9.976635008835067e-01
	9.976635008835211e-01	2.000000000000000e+00

124	1.240000000000000e-10	-9.889441096337861e-01
	9.889441096337845e-01	-9.982193399034464e-01
	9.982193399034485e-01	2.000000000000000e+00

125	1.250000000000000e-10	-9.889488235541743e-01
	9.889488235541739e-01	-9.979305836201918e-01
	9.979305836201756e-01	2.000000000000000e+00

126	1.260000000000000e-10	-9.889579780549895e-01
	9.889579780549894e-01	-9.981813241732004e-01
	9.981813241732118e-01	2.000000000000000e+00

127	1.270000000000000e-10	-9.889574165442208e-01
	9.889574165442190e-01	-9.985908783069969e-01
	9.985908783070030e-01	2.000000000000000e+00

128	1.280000000000000e-10	-9.889335571299944e-01
	9.889335571299932e-01	-9.986701323644277e-01
	9.986701323644103e-01	2.000000000000000e+00

129	1.290000000000000e-10	-9.889216560585022e-01
	9.889216560585012e-01	-9.986131786743209e-01
	9.986131786743296e-01	2.000000000000000e+00

130	1.300000000000000e-10	-9.889196249957034e-01
	9.889196249957012e-01	-9.988897471792918e-01
	9.988897471793016e-01	2.000000000000000e+00

131	1.310000000000000e-10	-9.888951378709384e-01
	9.888951378709369e-01	-9.988644078872178e-01
	9.988644078872004e-01	2.000000000000000e+00

132	1.320000000000000e-10	-9.888823519926865e-01
	9.888823519926859e-01	-9.988524730437355e-01
	9.988524730437399e-01	2.000000000000000e+00

133	1.330000000000000e-10	-9.888751878474924e-01
	9.888751878474907e-01	-9.991330462644938e-01
	9.991330462645066e-01	2.000000000000000e+00

134	1.340000000000000e-10	-9.888523504430785e-01
	9.888523504430772e-01	-9.990645927881854e-01
	9.990645927881692e-01	2.000000000000000e+00

135	1.350000000000000e-10	-9.888373240795938e-01
	9.888373240795932e-01	-9.988153927718127e-01
	9.988153927718143e-01	2.000000000000000e+00

136	1.360000000000000e-10	-9.888238086979676e-01
	9.888238086979663e-01	-9.993397133633285e-01
	9.993397133633417e-01	2.000000000000000e+00

137	1.370000000000000e-10	-9.888049383318021e-01
	9.888049383318008e-01	-9.992738593633068e-01
	9.992738593632933e-01	2.000000000000000e+00

138	1.380000000000000e-10	-9.888003418276828e-01
	9.888003418276827e-01	-9.991461635260126e-01
	9.991461635260105e-01	2.000000000000000e+00

139	1.390000000000000e-10	-9.888057981585539e-01
	9.888057981585533e-01	-9.995344820244437e-01
	9.995344820244586e-01	2.000000000000000e+00

140	1.400000000000000e-10	-9.888018315928657e-01
	9.888018315928648e-01	-9.994934979628541e-01
	9.994934979628426e-01	2.000000000000000e+00

141	1.410000000000000e-10	-9.888015962661614e-01
	9.888015962661614e-01	-9.994552276697904e-01
	9.994552276697848e-01	2.000000000000000e+00

142	1.420000000000000e-10	-9.888205397291941e-01
	9.888205397291936e-01	-9.997997604205123e-01
	9.997997604205280e-01	2.000000000000000e+00

143	1.430000000000000e-10	-9.888274177509170e-01
	9.888274177509160e-01	-9.997188285834417e-01
	9.997188285834337e-01	2.000000000000000e+00

144	1.440000000000000e-10	-9.888272343844560e-01
	9.888272343844561e-01	-9.997371222445841e-01
	9.997371222445743e-01	2.000000000000000e+00

145	1.450000000000000e-10	-9.888404014701901e-01
	9.888404014701898e-01	-1.000042163995425e+00
	1.000042163995441e+00	2.000000000000000e+00

146	1.460000000000000e-10	-9.888399911736828e-01
	9.888399911736820e-01	-1.000168841280673e+00
	1.000168841280667e+00	2.000000000000000e+00

147	1.470000000000000e-10	-9.888383593960617e-01
	9.888383593960618e-01	-9.999899575539488e-01
	9.999899575539378e-01	2.000000000000000e+00

148	1.480000000000000e-10	-9.888461845251107e-01
	9.888461845251106e-01	-1.000243719864036e+00
	1.000243719864051e+00	2.000000000000000e+00

149	1.490000000000000e-10	-9.888366165963486e-01
	9.888366165963476e-01	-1.000370843483345e+00
	1.000370843483342e+00	2.000000000000000e+00

150	1.500000000000000e-10	-9.888313739864559e-01
	9.888313739864557e-01	-1.000212399576982e+00
	1.000212399576969e+00	2.000000000000000e+00

151	1.510000000000000e-10	-9.887239689466635e-01
	9.887239689466635e-01	-6.485429621585757e-01
	6.485429621605530e-01	2.000000000000000e+00

152	1.520000000000000e-10	-9.885761937369274e-01
	9.885761937369270e-01	-2.855146172079069e-01
	2.855146172079561e-01	2.000000000000000e+00

153	1.530000000000000e-10	-9.884388599268886e-01
	9.884388599268882e-01	6.618500714543155e-02
	-6.618500714546929e-02	2.000000000000000e+00

154	1.540000000000000e-10	-9.883894263674757e-01
	9.883894263674760e-01	7.139622835457270e-02
	-7.139622835328678e-02	2.000000000000000e+00

155	1.550000000000000e-10	-9.884482586760557e-01
	9.884482586760563e-01	6.975347548935400e-02
	-6.975347548929074e-02	2.000000000000000e+00

156	1.560000000000000e-10	-9.884605040716802e-01
	9.884605040716800e-01	7.350568130691450e-02
	-7.350568130693881e-02	2.000000000000000e+00

157	1.570000000000000e-10	-9.884783103417415e-01
	9.884783103417422e-01	7.512043467584581e-02
	-7.512043467588790e-02	2.000000000000000e+00

158	1.580000000000000e-10	-9.884910045074856e-01
	9.884910045074869e-01	7.491559087070410e-02
	-7.491559087066185e-02	2.000000000000000e+00

159	1.590000000000000e-10	-9.884975665280549e-01
	9.884975665280549e-01	7.601147896733279e-02
	-7.601147896733042e-02	2.000000000000000e+00

160	1.600000000000000e-10	-9.885110809943130e-01
	9.885110809943135e-01	7.668633444232309e-02
	-7.668633444236161e-02	2.000000000000000e+00

161	1.610000000000000e-10	-9.885176128123805e-01
	9.885176128123820e-01	7.687541150115451e-02
	-7.687541150112506e-02	2.000000000000000e+00

162	1.620000000000000e-10	-9.885163404999415e-01
	9.885163404999414e-01	7.740206909295778e-02
	-7.740206909294410e-02	2.000000000000000e+00

163	1.630000000000000e-10	-9.885167202668146e-01
	9.885167202668146e-01	7.765319831487399e-02
	-7.765319831491324e-02	2.000000000000000e+00

164	1.640000000000000e-10	-9.885106616362240e-01
	9.885106616362255e-01	7.775501184936964e-02
	-7.775501184934949e-02	2.000000000000000e+00

165	1.650000000000000e-10	-9.885043296633039e-01
	9.885043296633035e-01	7.837196896405271e-02
	-7.837196896403045e-02	2.000000000000000e+00

166	1.660000000000000e-10	-9.884950925520454e-01
	9.884950925520452e-01	7.852204495691219e-02
	-7.852204495695274e-02	2.000000000000000e+00

167	1.670000000000000e-10	-9.884755798599753e-01
	9.884755798599764e-01	7.848162823575620e-02
	-7.848162823574141e-02	2.000000000000000e+00

168	1.680000000000000e-10	-9.884620960314664e-01
	9.884620960314658e-01	7.916353700548609e-02
	-7.916353700545815e-02	2.000000000000000e+00

169	1.690000000000000e-10	-9.884457195850024e-01
	9.884457195850020e-01	7.934028060014779e-02
	-7.934028060018963e-02	2.000000000000000e+00

170	1.700000000000000e-10	-9.884156211730433e-01
	9.884156211730447e-01	7.949190726115883e-02
	-7.949190726114795e-02	2.000000000000000e+00

171	1.710000000000000e-10	-9.883847362461023e-01
	9.883847362461018e-01	8.019692873072380e-02
	-8.019692873069316e-02	2.000000000000000e+00

172	1.720000000000000e-10	-9.883524487902396e-01
	9.883524487902385e-01	8.012931864044047e-02
	-8.012931864047956e-02	2.000000000000000e+00

173	1.730000000000000e-10	-9.883179752696739e-01
	9.883179752696747e-01	8.038928220252500e-02
	-8.038928220252005e-02	2.000000000000000e+00

174	1.740000000000000e-10	-9.882850984787793e-01
	9.882850984787788e-01	8.105136616323541e-02
	-8.105136616320267e-02	2.000000000000000e+00

175	1.750000000000000e-10	-9.882493803157829e-01
	9.882493803157816e-01	8.088950266365469e-02
	-8.088950266368861e-02	2.000000000000000e+00

176	1.760000000000000e-10	-9.882124721343463e-01
	9.882124721343466e-01	8.119338842422247e-02
	-8.119338842422522e-02	2.000000000000000e+00

177	1.770000000000000e-10	-9.881839676401585e-01
	9.881839676401577e-01	8.170715606919250e-02
	-8.170715606915706e-02	2.000000000000000e+00

178	1.780000000000000e-10	-9.881649520415440e-01
	9.881649520415420e-01	8.188683545340196e-02
	-8.188683545343119e-02	2.000000000000000e+00

179	1.790000000000000e-10	-9.881390232210765e-01
	9.881390232210765e-01	8.191108772348533e-02
	-8.191108772349526e-02	2.000000000000000e+00

180	1.800000000000000e-10	-9.881112566964804e-01
	9.881112566964796e-01	8.228531047592905e-02
	-8.228531047589034e-02	2.000000000000000e+00

181	1.810000000000000e-10	-9.880935868201445e-01
	9.880935868201428e-01	8.237320218877431e-02
	-8.237320218880032e-02	2.000000000000000e+00

182	1.820000000000000e-10	-9.880681094794861e-01
	9.880681094794863e-01	8.243415899086498e-02
	-8.243415899088036e-02	2.000000000000000e+00

183	1.830000000000000e-10	-9.880432129225299e-01
	9.880432129225294e-01	8.280467464339122e-02
	-8.280467464335048e-02	2.000000000000000e+00

184	1.840000000000000e-10	-9.880243969421009e-01
	9.880243969420986e-01	8.285866860850583e-02
	-8.285866860852828e-02	2.000000000000000e+00

185	1.850000000000000e-10	-9.879983101939659e-01
	9.879983101939660e-01	8.268074896015797e-02
	-8.268074896017698e-02	2.000000000000000e+00

186	1.860000000000000e-10	-9.879758402110985e-01
	9.879758402110984e-01	8.328357654044027e-02
	-8.328357654040149e-02	2.000000000000000e+00

187	1.870000000000000e-10	-9.879537520037692e-01
	9.879537520037676e-01	8.334744492635433e-02
	-8.334744492637121e-02	2.000000000000000e+00

188	1.880000000000000e-10	-9.879183843680547e-01
	9.879183843680545e-01	8.328926974044798e-02
	-8.328926974047017e-02	2.000000000000000e+00

189	1.890000000000000e-10	-9.878809488574293e-01
	9.878809488574293e-01	8.376170781419796e-02
	-8.376170781416259e-02	2.000000000000000e+00

190	1.900000000000000e-10	-9.878472188432729e-01
	9.878472188432710e-01	8.384132636686564e-02
	-8.384132636687579e-02	2.000000000000000e+00

191	1.910000000000000e-10	-9.878066198486373e-01
	9.878066198486372e-01	8.387399641733882e-02
	-8.387399641736493e-02	2.000000000000000e+00

192	1.920000000000000e-10	-9.877577547396800e-01
	9.877577547396803e-01	8.430531594541811e-02
	-8.430531594538571e-02	2.000000000000000e+00

193	1.930000000000000e-10	-9.877145148713359e-01
	9.877145148713341e-01	8.433601839230032e-02
	-8.433601839230317e-02	2.000000000000000e+00

194	1.940000000000000e-10	-9.876716838194478e-01
	9.876716838194478e-01	8.442909590944105e-02
	-8.442909590947167e-02	2.000000000000000e+00

195	1.950000000000000e-10	-9.876252808858574e-01
	9.876252808858583e-01	8.480786315508899e-02
	-8.480786315505912e-02	2.000000000000000e+00

196	1.960000000000000e-10	-9.875886508868197e-01
	9.875886508868187e-01	8.505348468074328e-02
	-8.505348468074043e-02	2.000000000000000e+00

197	1.970000000000000e-10	-9.875474778467422e-01
	9.875474778467423e-01	8.495187737162922e-02
	-8.495187737166159e-02	2.000000000000000e+00

198	1.980000000000000e-10	-9.875027643784369e-01
	9.875027643784384e-01	8.526813544531417e-02
	-8.526813544528812e-02	2.000000000000000e+00

199	1.990000000000000e-10	-9.874723288464180e-01
	9.874723288464176e-01	8.551625845170879e-02
	-8.551625845170149e-02	2.000000000000000e+00

200	2.000000000000000e-10	-9.874327432418459e-01
	9.874327432418457e-01	8.544232035967418e-02
	-8.544232035970634e-02	2.000000000000000e+00

201	2.010000000000000e-10	-9.874629365911924e-01
	9.874629365911936e-01	-1.488859873009127e-01
	1.488859873018069e-01	2.000000000000000e+00

202	2.020000000000000e-10	-9.875229690242119e-01
	9.875229690242108e-01	-3.907615081518802e-01
	3.907615081519134e-01	2.000000000000000e+00

203	2.030000000000000e-10	-9.875690073879239e-01
	9.875690073879223e-01	-6.252302076777853e-01
	6.252302076777442e-01	2.000000000000000e+00

204	2.040000000000000e-10	-9.875586326520311e-01
	9.875586326520311e-01	-6.285426060707646e-01
	6.285426060698919e-01	2.000000000000000e+00

205	2.050000000000000e-10	-9.874787050174828e-01
	9.874787050174815e-01	-6.273160321028248e-01
	6.273160321028312e-01	2.000000000000000e+00

206	2.060000000000000e-10	-9.874211079398793e-01
	9.874211079398780e-01	-6.297905192792246e-01
	6.297905192792090e-01	2.000000000000000e+00

207	2.070000000000000e-10	-9.873610674916560e-01
	9.873610674916564e-01	-6.307393298393497e-01
	6.307393298393603e-01	2.000000000000000e+00

208	2.080000000000000e-10	-9.873076732618594e-01
	9.873076732618583e-01	-6.304678337771414e-01
	6.304678337771583e-01	2.000000000000000e+00

209	2.090000000000000e-10	-9.872499699742913e-01
	9.872499699742899e-01	-6.311456947483773e-01
	6.311456947483535e-01	2.000000000000000e+00
